                               Psi4 1.3.2 release

  ==> Input File <==

--------------------------------------------------------------------------
memory 4 gb

molecule dimer {
   C  24.081  20.550   2.967
   C  25.023  21.562   2.352
   O  24.861  21.548   0.942
   H  25.478  22.205   0.581
   H  24.180  20.535   4.056
   H  23.042  20.785   2.711
   H  24.284  19.546   2.580
   H  26.062  21.311   2.589
   H  24.803  22.567   2.723

units angstrom
symmetry c1
}

set globals{
basis       aug-cc-pVTZ
print       1
}

gradient('pbe')

molecule dimer {
 0 1
   C  19.898  23.202  17.886
   C  19.314  24.409  18.589
   O  19.298  25.506  17.688
   H  18.920  26.260  18.169
   H  19.925  22.336  18.554
   H  19.307  22.947  17.001
   H  20.915  23.412  17.540
   H  19.920  24.676  19.459
   H  18.289  24.205  18.914

units angstrom
symmetry c1
}

set globals{
basis       aug-cc-pVTZ
print       1
}

gradient('pbe')

--------------------------------------------------------------------------

    Molecular point group: c1
  Charge       = 0
  Multiplicity = 1
  Basis Set: AUG-CC-PVTZ
    Blend: AUG-CC-PVTZ
  Basis Set: (AUG-CC-PVTZ AUX)
    Blend: AUG-CC-PVTZ-JKFIT
  @DF-RKS Final Energy:  -154.90504853240770
    Total Energy =                       -154.9050485324077044
    Molecular point group: c1
  Basis Set: AUG-CC-PVTZ
    Blend: AUG-CC-PVTZ
  Basis Set: (AUG-CC-PVTZ AUX)
    Blend: AUG-CC-PVTZ-JKFIT
    Molecular point group: c1
  Charge       = 0
  Multiplicity = 1
  Basis Set: AUG-CC-PVTZ
    Blend: AUG-CC-PVTZ
  Basis Set: (AUG-CC-PVTZ AUX)
    Blend: AUG-CC-PVTZ-JKFIT

    Orbital Energies [Eh]
    ---------------------

    Doubly Occupied:

       1A    -18.753946     2A     -9.928136     3A     -9.874399
       4A     -0.935782     5A     -0.680059     6A     -0.550372
       7A     -0.466985     8A     -0.417968     9A     -0.361219
      10A     -0.341514    11A     -0.320946    12A     -0.290354
      13A     -0.226581

  @DF-RKS Final Energy:  -154.90505002274551

   => Energetics <=

    Nuclear Repulsion Energy =             81.8175572626056464
    One-Electron Energy =                -371.8044468722746387
    Two-Electron Energy =                 156.5597212443235264
    DFT Exchange-Correlation Energy =     -21.4778816574000366
    Empirical Dispersion Energy =           0.0000000000000000
    VV10 Nonlocal Energy =                  0.0000000000000000
    Total Energy =                       -154.9050500227455132

  Dipole Moment: [D]
     X:    -0.4737      Y:    -0.0200      Z:     1.4410     Total:     1.5170

    Molecular point group: c1

    Geometry (in Angstrom), charge = 0, multiplicity = 1:

       Center              X                  Y                   Z               Mass
    ------------   -----------------  -----------------  -----------------  -----------------
         C            0.406879159129    -1.216207607142    -0.165244584164    12.000000000000
         C           -0.177120840871    -0.009207607142     0.537755415836    12.000000000000
         O           -0.193120840871     1.087792392858    -0.363244584164    15.994914619570
         H           -0.571120840871     1.841792392858     0.117755415836     1.007825032230
         H            0.433879159129    -2.082207607142     0.502755415836     1.007825032230
         H           -0.184120840871    -1.471207607142    -1.050244584164     1.007825032230
         H            1.423879159129    -1.006207607142    -0.511244584164     1.007825032230
         H            0.428879159129     0.257792392858     1.407755415836     1.007825032230
         H           -1.202120840871    -0.213207607142     0.862755415836     1.007825032230

  Basis Set: AUG-CC-PVTZ
    Blend: AUG-CC-PVTZ
  Basis Set: (AUG-CC-PVTZ AUX)
    Blend: AUG-CC-PVTZ-JKFIT

  -Total Gradient:
     Atom            X                  Y                   Z
    ------   -----------------  -----------------  -----------------
       1       -0.000222668176    -0.002292712659     0.002028693137
       2       -0.000999480190     0.004150716314     0.001368469211
       3        0.000067163493    -0.009611836892     0.007974545684
       4       -0.000667701716    -0.000711900897     0.002621674705
       5        0.000051534002     0.001901530455    -0.001690091402
       6        0.002882893574     0.001168259944     0.001405879891
       7       -0.003153220078    -0.000580769331    -0.000661791184
       8       -0.002969417459     0.001770447517    -0.008047449856
       9        0.005013134050     0.004183918641    -0.004988309689

*** Psi4 exiting successfully. Buy a developer a beer!
