                               Psi4 1.3.2 release

  ==> Input File <==

--------------------------------------------------------------------------
memory 4 gb

molecule dimer {
   C  24.081  20.550   2.967
   C  25.023  21.562   2.352
   O  24.861  21.548   0.942
   H  25.478  22.205   0.581
   H  24.180  20.535   4.056
   H  23.042  20.785   2.711
   H  24.284  19.546   2.580
   H  26.062  21.311   2.589
   H  24.803  22.567   2.723

units angstrom
symmetry c1
}

set globals{
basis       aug-cc-pVDZ
print       1
}

optimize('pbe')

--------------------------------------------------------------------------

    Molecular point group: c1
  Charge       = 0
  Multiplicity = 1
  Basis Set: AUG-CC-PVDZ
    Blend: AUG-CC-PVDZ
  Basis Set: (AUG-CC-PVDZ AUX)
    Blend: AUG-CC-PVDZ-JKFIT
  @DF-RKS Final Energy:  -154.86317192381571
    Total Energy =                       -154.8631719238157132
    Molecular point group: c1
  Basis Set: AUG-CC-PVDZ
    Blend: AUG-CC-PVDZ
  Basis Set: (AUG-CC-PVDZ AUX)
    Blend: AUG-CC-PVDZ-JKFIT
  Basis Set: AUG-CC-PVDZ
    Blend: AUG-CC-PVDZ
  Basis Set: (AUG-CC-PVDZ AUX)
    Blend: AUG-CC-PVDZ-JKFIT
  @DF-RKS Final Energy:  -154.86448884548068
    Total Energy =                       -154.8644888454806789
  Basis Set: AUG-CC-PVDZ
    Blend: AUG-CC-PVDZ
  Basis Set: (AUG-CC-PVDZ AUX)
    Blend: AUG-CC-PVDZ-JKFIT
  Basis Set: AUG-CC-PVDZ
    Blend: AUG-CC-PVDZ
  Basis Set: (AUG-CC-PVDZ AUX)
    Blend: AUG-CC-PVDZ-JKFIT
  @DF-RKS Final Energy:  -154.86452218410255
    Total Energy =                       -154.8645221841025545
  Basis Set: AUG-CC-PVDZ
    Blend: AUG-CC-PVDZ
  Basis Set: (AUG-CC-PVDZ AUX)
    Blend: AUG-CC-PVDZ-JKFIT
  Charge       = 0
  Multiplicity = 1
  Basis Set: AUG-CC-PVDZ
    Blend: AUG-CC-PVDZ
  Basis Set: (AUG-CC-PVDZ AUX)
    Blend: AUG-CC-PVDZ-JKFIT

    Orbital Energies [Eh]
    ---------------------

    Doubly Occupied:

       1A    -18.773401     2A     -9.943473     3A     -9.889180
       4A     -0.932321     5A     -0.679575     6A     -0.548348
       7A     -0.465244     8A     -0.412517     9A     -0.357592
      10A     -0.338057    11A     -0.318769    12A     -0.291596
      13A     -0.227361

  @DF-RKS Final Energy:  -154.86452388597047

   => Energetics <=

    Nuclear Repulsion Energy =             81.0952155639811139
    One-Electron Energy =                -370.2495614295900168
    Two-Electron Energy =                 155.7238665162725511
    DFT Exchange-Correlation Energy =     -21.4340445366341186
    Empirical Dispersion Energy =           0.0000000000000000
    VV10 Nonlocal Energy =                  0.0000000000000000
    Total Energy =                       -154.8645238859704705

  Dipole Moment: [D]
     X:     0.9439      Y:     0.8599      Z:     0.8153     Total:     1.5150

    Molecular point group: c1
  Basis Set: AUG-CC-PVDZ
    Blend: AUG-CC-PVDZ
  Basis Set: (AUG-CC-PVDZ AUX)
    Blend: AUG-CC-PVDZ-JKFIT

  -Total Gradient:
     Atom            X                  Y                   Z
    ------   -----------------  -----------------  -----------------
       1        0.000018121229     0.000003843704     0.000080243057
       2       -0.000016507534    -0.000000567192    -0.000203440461
       3        0.000031516158     0.000018955093     0.000121026562
       4       -0.000002624617    -0.000001504072    -0.000009500369
       5        0.000002491370     0.000001405782     0.000045502271
       6       -0.000044107933    -0.000019010466    -0.000021566611
       7       -0.000022126946    -0.000040579797    -0.000025106658
       8        0.000034706762    -0.000008913281     0.000017233495
       9       -0.000007948659     0.000036809568     0.000024402507

  **** Optimization is complete! (in 4 steps) ****
    Final optimized geometry and variables:
    Molecular point group: c1

    Geometry (in Angstrom), charge = 0, multiplicity = 1:

    C           -0.593058754700    -0.692083569194     0.916521361269
    C            0.359905712095     0.327447674965     0.315128264951
    O            0.185147868585     0.303943936531    -1.113522504736
    H            0.793317723135     0.955216863205    -1.503489570046
    H           -0.492229802217    -0.707743726495     2.017840290020
    H           -1.640058178222    -0.442408074630     0.663803923162
    H           -0.374290823774    -1.704548928077     0.529921629707
    H            1.410258692173     0.075671266963     0.582407288834
    H            0.140684691375     1.341658884190     0.716885553652

*** Psi4 exiting successfully. Buy a developer a beer!
