                               Psi4 1.3.2 release

  ==> Input File <==

--------------------------------------------------------------------------
memory 4 gb

molecule dimer {
 0  1
C          -0.5930588    -0.6920836     0.9165214
C           0.3599057     0.3274477     0.3151283
O           0.1851479     0.3039439    -1.1135225
H           0.7933177     0.9552169    -1.5034896
H          -0.4922298    -0.7077437     2.0178403
H          -1.6400582    -0.4424081     0.6638039
H          -0.3742908    -1.7045489     0.5299216
H           1.4102587     0.0756713     0.5824073
H           0.1406847     1.3416589     0.7168856

units angstrom
symmetry c1
}

set globals{
 basis aug-cc-pVTZ
 print 1
}

energy('mp2')

--------------------------------------------------------------------------

    Molecular point group: c1

    Geometry (in Angstrom), charge = 0, multiplicity = 1:

       Center              X                  Y                   Z               Mass
    ------------   -----------------  -----------------  -----------------  -----------------
         C           -0.593058795901    -0.692083588319     0.916521379461    12.000000000000
         C            0.359905704099     0.327447711681     0.315128279461    12.000000000000
         O            0.185147904099     0.303943911681    -1.113522520539    15.994914619570
         H            0.793317704099     0.955216911681    -1.503489620539     1.007825032230
         H           -0.492229795901    -0.707743688319     2.017840279461     1.007825032230
         H           -1.640058195901    -0.442408088319     0.663803879461     1.007825032230
         H           -0.374290795901    -1.704548888319     0.529921579461     1.007825032230
         H            1.410258704099     0.075671311681     0.582407279461     1.007825032230
         H            0.140684704099     1.341658911681     0.716885579461     1.007825032230

  Charge       = 0
  Multiplicity = 1
  Basis Set: AUG-CC-PVTZ
    Blend: AUG-CC-PVTZ
  Basis Set: (AUG-CC-PVTZ AUX)
    Blend: AUG-CC-PVTZ-JKFIT

    Orbital Energies [Eh]
    ---------------------

    Doubly Occupied:

       1A    -20.557574     2A    -11.281652     3A    -11.219194
       4A     -1.349371     5A     -1.007806     6A     -0.828802
       7A     -0.691907     8A     -0.639173     9A     -0.568002
      10A     -0.529013    11A     -0.521982    12A     -0.488769
      13A     -0.442069

  @DF-RHF Final Energy:  -154.14258043698783

   => Energetics <=

    Nuclear Repulsion Energy =             81.0952143314669200
    One-Electron Energy =                -370.2249594326042939
    Two-Electron Energy =                 134.9871646641495317
    Total Energy =                       -154.1425804369878279

  Dipole Moment: [D]
     X:     1.0681      Y:     0.9691      Z:     0.9600     Total:     1.7325

  Basis Set: (AUG-CC-PVTZ AUX)
    Blend: AUG-CC-PVTZ-RI
	 Reference Energy          =    -154.1425804369878279 [Eh]
	 Singles Energy            =      -0.0000000000000000 [Eh]
	 Same-Spin Energy          =      -0.1480733297779835 [Eh]
	 Opposite-Spin Energy      =      -0.5186643862916496 [Eh]
	 Correlation Energy        =      -0.6667377160696331 [Eh]
	 Total Energy              =    -154.8093181530574611 [Eh]

	 ================> DF-SCS-MP2 Energies <==================
	-----------------------------------------------------------
	 SCS Same-Spin Scale       =       0.3333333333333333 [-]
	 SCS Opposite-Spin Scale   =       1.2000000000000000 [-]
	 SCS Same-Spin Energy      =      -0.0493577765926612 [Eh]
	 SCS Opposite-Spin Energy  =      -0.6223972635499795 [Eh]
	 SCS Correlation Energy    =      -0.6717550401426406 [Eh]
	 SCS Total Energy          =    -154.8143354771304701 [Eh]
	-----------------------------------------------------------

*** Psi4 exiting successfully. Buy a developer a beer!
